 variables = x , y ,z
 zone i=           61 j=           31
 -0.500000000       0.00000000     0.0
 -0.489046127       1.55257126E-02 0.0
 -0.475974768       2.08247770E-02 0.0
 -0.460450441       2.43565533E-02 0.0
 -0.442116410       2.68313140E-02 0.0
 -0.420607686       2.84879226E-02 0.0
 -0.395570725       2.94325128E-02 0.0
 -0.366689831       2.97277216E-02 0.0
 -0.333721697       2.94281561E-02 0.0
 -0.296534061       2.85975318E-02 0.0
 -0.255147219       2.73160618E-02 0.0
 -0.209770739       2.56807990E-02 0.0
 -0.160828471       2.37998646E-02 0.0
 -0.108964354       2.17826404E-02 0.0
  -5.50224483E-02   1.97283775E-02 0.0
   0.00000000       1.77165028E-02 0.0
   5.50224781E-02   1.58015676E-02 0.0
  0.108964384       1.40134282E-02 0.0
  0.160828531       1.23622026E-02 0.0
  0.209770739       1.08454805E-02 0.0
  0.255147278       9.45523754E-03 0.0
  0.296534061       8.18295870E-03 0.0
  0.333721757       7.02186208E-03 0.0
  0.366689801       5.96747221E-03 0.0
  0.395570755       5.01665147E-03 0.0
  0.420607686       4.16654302E-03 0.0
  0.442116380       3.41356220E-03 0.0
  0.460450411       2.75289407E-03 0.0
  0.475974798       2.17855698E-03 0.0
  0.489046097       1.68348837E-03 0.0
  0.500000000       0.00000000     0.0
  0.489046097      -1.68348837E-03 0.0
  0.475974798      -2.17855698E-03 0.0
  0.460450411      -2.75289407E-03 0.0
  0.442116380      -3.41356220E-03 0.0
  0.420607686      -4.16654302E-03 0.0
  0.395570755      -5.01665147E-03 0.0
  0.366689801      -5.96747221E-03 0.0
  0.333721757      -7.02186208E-03 0.0
  0.296534061      -8.18295870E-03 0.0
  0.255147278      -9.45523754E-03 0.0
  0.209770739      -1.08454805E-02 0.0
  0.160828531      -1.23622026E-02 0.0
  0.108964384      -1.40134282E-02 0.0
   5.50224781E-02  -1.58015676E-02 0.0
   0.00000000      -1.77165028E-02 0.0
  -5.50224483E-02  -1.97283775E-02 0.0
 -0.108964354      -2.17826404E-02 0.0
 -0.160828471      -2.37998646E-02 0.0
 -0.209770739      -2.56807990E-02 0.0
 -0.255147219      -2.73160618E-02 0.0
 -0.296534061      -2.85975318E-02 0.0
 -0.333721697      -2.94281561E-02 0.0
 -0.366689831      -2.97277216E-02 0.0
 -0.395570725      -2.94325128E-02 0.0
 -0.420607686      -2.84879226E-02 0.0
 -0.442116410      -2.68313140E-02 0.0
 -0.460450441      -2.43565533E-02 0.0
 -0.475974768      -2.08247770E-02 0.0
 -0.489046127      -1.55257126E-02 0.0
 -0.500000000      -0.00000000     0.0
 -0.616666675       0.00000000     0.0
 -0.605347514       2.89453063E-02 0.0
 -0.590528607       4.78521511E-02 0.0
 -0.571909666       6.47469014E-02 0.0
 -0.549185276       8.01684484E-02 0.0
 -0.522057533       9.42049399E-02 0.0
 -0.490254015      0.106822737     0.0
 -0.453552872      0.117954157     0.0
 -0.411815107      0.127533123     0.0
 -0.365021050      0.135513142     0.0
 -0.313309073      0.141875520     0.0
 -0.257010043      0.146630779     0.0
 -0.196669921      0.149814025     0.0
 -0.133053914      0.151476204     0.0
  -6.71256483E-02  0.151673675     0.0
  -1.69012111E-07  0.150459290     0.0
   6.71253428E-02  0.147877783     0.0
  0.133053601      0.143966034     0.0
  0.196669638      0.138757721     0.0
  0.257009745      0.132290110     0.0
  0.313308835      0.124610245     0.0
  0.365020782      0.115779258     0.0
  0.411814928      0.105873935     0.0
  0.453552604       9.49861705E-02 0.0
  0.490253836       8.32210258E-02 0.0
  0.522057354       7.06945807E-02 0.0
  0.549185097       5.75316101E-02 0.0
  0.571909487       4.38637026E-02 0.0
  0.590528607       2.98277996E-02 0.0
  0.605347455       1.55648226E-02 0.0
  0.616666675       3.38024222E-07 0.0
  0.605347455      -1.55648226E-02 0.0
  0.590528607      -2.98277996E-02 0.0
  0.571909487      -4.38637026E-02 0.0
  0.549185097      -5.75316101E-02 0.0
  0.522057354      -7.06945807E-02 0.0
  0.490253836      -8.32210258E-02 0.0
  0.453552604      -9.49861705E-02 0.0
  0.411814928     -0.105873935     0.0
  0.365020782     -0.115779258     0.0
  0.313308835     -0.124610245     0.0
  0.257009745     -0.132290110     0.0
  0.196669638     -0.138757721     0.0
  0.133053601     -0.143966034     0.0
   6.71253428E-02 -0.147877783     0.0
  -1.69012111E-07 -0.150459290     0.0
  -6.71256483E-02 -0.151673675     0.0
 -0.133053914     -0.151476204     0.0
 -0.196669921     -0.149814025     0.0
 -0.257010043     -0.146630779     0.0
 -0.313309073     -0.141875520     0.0
 -0.365021050     -0.135513142     0.0
 -0.411815107     -0.127533123     0.0
 -0.453552872     -0.117954157     0.0
 -0.490254015     -0.106822737     0.0
 -0.522057533      -9.42049399E-02 0.0
 -0.549185276      -8.01684484E-02 0.0
 -0.571909666      -6.47469014E-02 0.0
 -0.590528607      -4.78521511E-02 0.0
 -0.605347514      -2.89453063E-02 0.0
 -0.616666675       0.00000000     0.0
 -0.733333349       0.00000000     0.0
 -0.721648932       4.23648991E-02 0.0
 -0.705082476       7.48795271E-02 0.0
 -0.683368862      0.105137244     0.0
 -0.656254172      0.133505583     0.0
 -0.623507321      0.159921959     0.0
 -0.584937274      0.184212953     0.0
 -0.540415883      0.206180602     0.0
 -0.489908546      0.225638092     0.0
 -0.433508039      0.242428765     0.0
 -0.371470928      0.256434977     0.0
 -0.304249346      0.267580777     0.0
 -0.232511371      0.275828183     0.0
 -0.157143474      0.281169772     0.0
  -7.92288482E-02  0.283618987     0.0
  -3.38024222E-07  0.283202082     0.0
   7.92282000E-02  0.279954016     0.0
  0.157142818      0.273918658     0.0
  0.232510746      0.265153259     0.0
  0.304248750      0.253734738     0.0
  0.371470362      0.239765242     0.0
  0.433507502      0.223375559     0.0
  0.489908099      0.204726011     0.0
  0.540415406      0.184004858     0.0
  0.584936917      0.161425397     0.0
  0.623506963      0.137222618     0.0
  0.656253815      0.111649662     0.0
  0.683368564       8.49745125E-02 0.0
  0.705082417       5.74770421E-02 0.0
  0.721648812       2.94461567E-02 0.0
  0.733333349       6.76048444E-07 0.0
  0.721648812      -2.94461567E-02 0.0
  0.705082417      -5.74770421E-02 0.0
  0.683368564      -8.49745125E-02 0.0
  0.656253815     -0.111649662     0.0
  0.623506963     -0.137222618     0.0
  0.584936917     -0.161425397     0.0
  0.540415406     -0.184004858     0.0
  0.489908099     -0.204726011     0.0
  0.433507502     -0.223375559     0.0
  0.371470362     -0.239765242     0.0
  0.304248750     -0.253734738     0.0
  0.232510746     -0.265153259     0.0
  0.157142818     -0.273918658     0.0
   7.92282000E-02 -0.279954016     0.0
  -3.38024222E-07 -0.283202082     0.0
  -7.92288482E-02 -0.283618987     0.0
 -0.157143474     -0.281169772     0.0
 -0.232511371     -0.275828183     0.0
 -0.304249346     -0.267580777     0.0
 -0.371470928     -0.256434977     0.0
 -0.433508039     -0.242428765     0.0
 -0.489908546     -0.225638092     0.0
 -0.540415883     -0.206180602     0.0
 -0.584937274     -0.184212953     0.0
 -0.623507321     -0.159921959     0.0
 -0.656254172     -0.133505583     0.0
 -0.683368862     -0.105137244     0.0
 -0.705082476      -7.48795271E-02 0.0
 -0.721648932      -4.23648991E-02 0.0
 -0.733333349       0.00000000     0.0
 -0.850000024       0.00000000     0.0
 -0.837950289       5.57844937E-02 0.0
 -0.819636345      0.101906903     0.0
 -0.794828057      0.145527601     0.0
 -0.763323009      0.186842725     0.0
 -0.724957168      0.225638986     0.0
 -0.679620564      0.261603177     0.0
 -0.627278924      0.294407040     0.0
 -0.568001986      0.323743075     0.0
 -0.501994967      0.349344373     0.0
 -0.429632813      0.370994419     0.0
 -0.351488650      0.388530761     0.0
 -0.268352807      0.401842326     0.0
 -0.181233048      0.410863340     0.0
  -9.13320482E-02  0.415564239     0.0
  -5.07036361E-07  0.415944874     0.0
   9.13310647E-02  0.412030250     0.0
  0.181232035      0.403871268     0.0
  0.268351853      0.391548783     0.0
  0.351487756      0.375179350     0.0
  0.429631919      0.354920238     0.0
  0.501994193      0.330971867     0.0
  0.568001270      0.303578109     0.0
  0.627278209      0.273023546     0.0
  0.679619968      0.239629775     0.0
  0.724956632      0.203750655     0.0
  0.763322592      0.165767699     0.0
  0.794827700      0.126085326     0.0
  0.819636166       8.51262882E-02 0.0
  0.837950110       4.33274917E-02 0.0
  0.850000024       1.01407272E-06 0.0
  0.837950110      -4.33274917E-02 0.0
  0.819636166      -8.51262882E-02 0.0
  0.794827700     -0.126085326     0.0
  0.763322592     -0.165767699     0.0
  0.724956632     -0.203750655     0.0
  0.679619968     -0.239629775     0.0
  0.627278209     -0.273023546     0.0
  0.568001270     -0.303578109     0.0
  0.501994193     -0.330971867     0.0
  0.429631919     -0.354920238     0.0
  0.351487756     -0.375179350     0.0
  0.268351853     -0.391548783     0.0
  0.181232035     -0.403871268     0.0
   9.13310647E-02 -0.412030250     0.0
  -5.07036361E-07 -0.415944874     0.0
  -9.13320482E-02 -0.415564239     0.0
 -0.181233048     -0.410863340     0.0
 -0.268352807     -0.401842326     0.0
 -0.351488650     -0.388530761     0.0
 -0.429632813     -0.370994419     0.0
 -0.501994967     -0.349344373     0.0
 -0.568001986     -0.323743075     0.0
 -0.627278924     -0.294407040     0.0
 -0.679620564     -0.261603177     0.0
 -0.724957168     -0.225638986     0.0
 -0.763323009     -0.186842725     0.0
 -0.794828057     -0.145527601     0.0
 -0.819636345     -0.101906903     0.0
 -0.837950289      -5.57844937E-02 0.0
 -0.850000024       0.00000000     0.0
 -0.966666698       0.00000000     0.0
 -0.954251647       6.92040846E-02 0.0
 -0.934190154      0.128934279     0.0
 -0.906287253      0.185917944     0.0
 -0.870391846      0.240179852     0.0
 -0.826406956      0.291355997     0.0
 -0.774303854      0.338993400     0.0
 -0.714141965      0.382633477     0.0
 -0.646095395      0.421848029     0.0
 -0.570482016      0.456259996     0.0
 -0.487794667      0.485553890     0.0
 -0.398727953      0.509480715     0.0
 -0.304194272      0.527856469     0.0
 -0.205322608      0.540556908     0.0
 -0.103435248      0.547509551     0.0
  -6.76048444E-07  0.548687696     0.0
  0.103433922      0.544106424     0.0
  0.205321252      0.533823848     0.0
  0.304192960      0.517944276     0.0
  0.398726761      0.496623993     0.0
  0.487793446      0.470075250     0.0
  0.570480943      0.438568175     0.0
  0.646094441      0.402430177     0.0
  0.714141011      0.362042248     0.0
  0.774303079      0.317834139     0.0
  0.826406240      0.270278692     0.0
  0.870391309      0.219885752     0.0
  0.906286776      0.167196140     0.0
  0.934189975      0.112775527     0.0
  0.954251468       5.72088249E-02 0.0
  0.966666698       1.35209689E-06 0.0
  0.954251468      -5.72088249E-02 0.0
  0.934189975     -0.112775527     0.0
  0.906286776     -0.167196140     0.0
  0.870391309     -0.219885752     0.0
  0.826406240     -0.270278692     0.0
  0.774303079     -0.317834139     0.0
  0.714141011     -0.362042248     0.0
  0.646094441     -0.402430177     0.0
  0.570480943     -0.438568175     0.0
  0.487793446     -0.470075250     0.0
  0.398726761     -0.496623993     0.0
  0.304192960     -0.517944276     0.0
  0.205321252     -0.533823848     0.0
  0.103433922     -0.544106424     0.0
  -6.76048444E-07 -0.548687696     0.0
 -0.103435248     -0.547509551     0.0
 -0.205322608     -0.540556908     0.0
 -0.304194272     -0.527856469     0.0
 -0.398727953     -0.509480715     0.0
 -0.487794667     -0.485553890     0.0
 -0.570482016     -0.456259996     0.0
 -0.646095395     -0.421848029     0.0
 -0.714141965     -0.382633477     0.0
 -0.774303854     -0.338993400     0.0
 -0.826406956     -0.291355997     0.0
 -0.870391846     -0.240179852     0.0
 -0.906287253     -0.185917944     0.0
 -0.934190154     -0.128934279     0.0
 -0.954251647      -6.92040846E-02 0.0
 -0.966666698       0.00000000     0.0
  -1.08333325       0.00000000     0.0
  -1.07055306       8.26236829E-02 0.0
  -1.04874408      0.155961648     0.0
  -1.01774645      0.226308286     0.0
 -0.977460742      0.293516994     0.0
 -0.927856803      0.357073009     0.0
 -0.868987143      0.416383624     0.0
 -0.801005006      0.470859915     0.0
 -0.724188805      0.519953012     0.0
 -0.638968945      0.563175619     0.0
 -0.545956492      0.600113332     0.0
 -0.445967257      0.630430698     0.0
 -0.340035737      0.653870642     0.0
 -0.229412168      0.670250475     0.0
 -0.115538448      0.679454863     0.0
  -8.45060526E-07  0.681430459     0.0
  0.115536787      0.676182628     0.0
  0.229410470      0.663776457     0.0
  0.340034068      0.644339800     0.0
  0.445965767      0.618068635     0.0
  0.545955002      0.585230291     0.0
  0.638967633      0.546164453     0.0
  0.724187613      0.501282215     0.0
  0.801003814      0.451060951     0.0
  0.868986130      0.396038502     0.0
  0.927855909      0.336806715     0.0
  0.977460027      0.274003804     0.0
   1.01774585      0.208306953     0.0
   1.04874372      0.140424758     0.0
   1.07055283       7.10901618E-02 0.0
   1.08333325       1.69012105E-06 0.0
   1.07055283      -7.10901618E-02 0.0
   1.04874372     -0.140424758     0.0
   1.01774585     -0.208306953     0.0
  0.977460027     -0.274003804     0.0
  0.927855909     -0.336806715     0.0
  0.868986130     -0.396038502     0.0
  0.801003814     -0.451060951     0.0
  0.724187613     -0.501282215     0.0
  0.638967633     -0.546164453     0.0
  0.545955002     -0.585230291     0.0
  0.445965767     -0.618068635     0.0
  0.340034068     -0.644339800     0.0
  0.229410470     -0.663776457     0.0
  0.115536787     -0.676182628     0.0
  -8.45060526E-07 -0.681430459     0.0
 -0.115538448     -0.679454863     0.0
 -0.229412168     -0.670250475     0.0
 -0.340035737     -0.653870642     0.0
 -0.445967257     -0.630430698     0.0
 -0.545956492     -0.600113332     0.0
 -0.638968945     -0.563175619     0.0
 -0.724188805     -0.519953012     0.0
 -0.801005006     -0.470859915     0.0
 -0.868987143     -0.416383624     0.0
 -0.927856803     -0.357073009     0.0
 -0.977460742     -0.293516994     0.0
  -1.01774645     -0.226308286     0.0
  -1.04874408     -0.155961648     0.0
  -1.07055306      -8.26236829E-02 0.0
  -1.08333325       0.00000000     0.0
  -1.20000005       0.00000000     0.0
  -1.18685448       9.60432738E-02 0.0
  -1.16329789      0.182989031     0.0
  -1.12920570      0.266698629     0.0
  -1.08452964      0.346854150     0.0
  -1.02930665      0.422790051     0.0
 -0.963670373      0.493773848     0.0
 -0.887868047      0.559086323     0.0
 -0.802282214      0.618058026     0.0
 -0.707455933      0.670091212     0.0
 -0.604118407      0.714672744     0.0
 -0.493206561      0.751380682     0.0
 -0.375877172      0.779884756     0.0
 -0.253501743      0.799944043     0.0
 -0.127641648      0.811400115     0.0
  -1.01407272E-06  0.814173281     0.0
  0.127639651      0.808258891     0.0
  0.253499687      0.793729067     0.0
  0.375875175      0.770735323     0.0
  0.493204743      0.739513218     0.0
  0.604116559      0.700385273     0.0
  0.707454324      0.653760731     0.0
  0.802280843      0.600134313     0.0
  0.887866616      0.540079653     0.0
  0.963669181      0.474242896     0.0
   1.02930558      0.403334767     0.0
   1.08452880      0.328121841     0.0
   1.12920499      0.249417752     0.0
   1.16329753      0.168074012     0.0
   1.18685412       8.49714950E-02 0.0
   1.20000005       2.02814545E-06 0.0
   1.18685412      -8.49714950E-02 0.0
   1.16329753     -0.168074012     0.0
   1.12920499     -0.249417752     0.0
   1.08452880     -0.328121841     0.0
   1.02930558     -0.403334767     0.0
  0.963669181     -0.474242896     0.0
  0.887866616     -0.540079653     0.0
  0.802280843     -0.600134313     0.0
  0.707454324     -0.653760731     0.0
  0.604116559     -0.700385273     0.0
  0.493204743     -0.739513218     0.0
  0.375875175     -0.770735323     0.0
  0.253499687     -0.793729067     0.0
  0.127639651     -0.808258891     0.0
  -1.01407272E-06 -0.814173281     0.0
 -0.127641648     -0.811400115     0.0
 -0.253501743     -0.799944043     0.0
 -0.375877172     -0.779884756     0.0
 -0.493206561     -0.751380682     0.0
 -0.604118407     -0.714672744     0.0
 -0.707455933     -0.670091212     0.0
 -0.802282214     -0.618058026     0.0
 -0.887868047     -0.559086323     0.0
 -0.963670373     -0.493773848     0.0
  -1.02930665     -0.422790051     0.0
  -1.08452964     -0.346854150     0.0
  -1.12920570     -0.266698629     0.0
  -1.16329789     -0.182989031     0.0
  -1.18685448      -9.60432738E-02 0.0
  -1.20000005       0.00000000     0.0
  -1.31666660       0.00000000     0.0
  -1.30315578      0.109462872     0.0
  -1.27785170      0.210016415     0.0
  -1.24066484      0.307088971     0.0
  -1.19159842      0.400191247     0.0
  -1.13075638      0.488507062     0.0
  -1.05835366      0.571164131     0.0
 -0.974731088      0.647312760     0.0
 -0.880375683      0.716162980     0.0
 -0.775942922      0.777006865     0.0
 -0.662280262      0.829232216     0.0
 -0.540445864      0.872330666     0.0
 -0.411718607      0.905898929     0.0
 -0.277591288      0.929637611     0.0
 -0.139744848      0.943345428     0.0
  -1.18308481E-06  0.946916103     0.0
  0.139742509      0.940335095     0.0
  0.277588904      0.923681676     0.0
  0.411716282      0.897130847     0.0
  0.540443778      0.860957861     0.0
  0.662278056      0.815540314     0.0
  0.775941014      0.761357069     0.0
  0.880374014      0.698986351     0.0
  0.974729419      0.629098356     0.0
   1.05835223      0.552447200     0.0
   1.13075519      0.469862819     0.0
   1.19159746      0.382239908     0.0
   1.24066401      0.290528566     0.0
   1.27785134      0.195723251     0.0
   1.30315542       9.88528281E-02 0.0
   1.31666660       2.36616961E-06 0.0
   1.30315542      -9.88528281E-02 0.0
   1.27785134     -0.195723251     0.0
   1.24066401     -0.290528566     0.0
   1.19159746     -0.382239908     0.0
   1.13075519     -0.469862819     0.0
   1.05835223     -0.552447200     0.0
  0.974729419     -0.629098356     0.0
  0.880374014     -0.698986351     0.0
  0.775941014     -0.761357069     0.0
  0.662278056     -0.815540314     0.0
  0.540443778     -0.860957861     0.0
  0.411716282     -0.897130847     0.0
  0.277588904     -0.923681676     0.0
  0.139742509     -0.940335095     0.0
  -1.18308481E-06 -0.946916103     0.0
 -0.139744848     -0.943345428     0.0
 -0.277591288     -0.929637611     0.0
 -0.411718607     -0.905898929     0.0
 -0.540445864     -0.872330666     0.0
 -0.662280262     -0.829232216     0.0
 -0.775942922     -0.777006865     0.0
 -0.880375683     -0.716162980     0.0
 -0.974731088     -0.647312760     0.0
  -1.05835366     -0.571164131     0.0
  -1.13075638     -0.488507062     0.0
  -1.19159842     -0.400191247     0.0
  -1.24066484     -0.307088971     0.0
  -1.27785170     -0.210016415     0.0
  -1.30315578     -0.109462872     0.0
  -1.31666660       0.00000000     0.0
  -1.43333340       0.00000000     0.0
  -1.41945720      0.122882463     0.0
  -1.39240563      0.237043783     0.0
  -1.35212409      0.347479314     0.0
  -1.29866731      0.453528404     0.0
  -1.23220634      0.554224074     0.0
  -1.15303695      0.648554325     0.0
  -1.06159413      0.735539198     0.0
 -0.958469093      0.814267933     0.0
 -0.844429910      0.883922458     0.0
 -0.720442116      0.943791687     0.0
 -0.587685168      0.993280649     0.0
 -0.447560072       1.03191316     0.0
 -0.301680863       1.05933118     0.0
 -0.151848048       1.07529080     0.0
  -1.35209689E-06   1.07965887     0.0
  0.151845366       1.07241130     0.0
  0.301678121       1.05363429     0.0
  0.447557390       1.02352643     0.0
  0.587682724      0.982402503     0.0
  0.720439672      0.930695295     0.0
  0.844427764      0.868953347     0.0
  0.958467185      0.797838449     0.0
   1.06159222      0.718117058     0.0
   1.15303540      0.630651593     0.0
   1.23220491      0.536390841     0.0
   1.29866624      0.436357945     0.0
   1.35212314      0.331639379     0.0
   1.39240515      0.223372489     0.0
   1.41945684      0.112734161     0.0
   1.43333340       2.70419378E-06 0.0
   1.41945684     -0.112734161     0.0
   1.39240515     -0.223372489     0.0
   1.35212314     -0.331639379     0.0
   1.29866624     -0.436357945     0.0
   1.23220491     -0.536390841     0.0
   1.15303540     -0.630651593     0.0
   1.06159222     -0.718117058     0.0
  0.958467185     -0.797838449     0.0
  0.844427764     -0.868953347     0.0
  0.720439672     -0.930695295     0.0
  0.587682724     -0.982402503     0.0
  0.447557390      -1.02352643     0.0
  0.301678121      -1.05363429     0.0
  0.151845366      -1.07241130     0.0
  -1.35209689E-06  -1.07965887     0.0
 -0.151848048      -1.07529080     0.0
 -0.301680863      -1.05933118     0.0
 -0.447560072      -1.03191316     0.0
 -0.587685168     -0.993280649     0.0
 -0.720442116     -0.943791687     0.0
 -0.844429910     -0.883922458     0.0
 -0.958469093     -0.814267933     0.0
  -1.06159413     -0.735539198     0.0
  -1.15303695     -0.648554325     0.0
  -1.23220634     -0.554224074     0.0
  -1.29866731     -0.453528404     0.0
  -1.35212409     -0.347479314     0.0
  -1.39240563     -0.237043783     0.0
  -1.41945720     -0.122882463     0.0
  -1.43333340       0.00000000     0.0
  -1.54999995       0.00000000     0.0
  -1.53575861      0.136302054     0.0
  -1.50695944      0.264071167     0.0
  -1.46358323      0.387869656     0.0
  -1.40573621      0.506865501     0.0
  -1.33365607      0.619941115     0.0
  -1.24772024      0.725944519     0.0
  -1.14845717      0.823765635     0.0
  -1.03656244      0.912372887     0.0
 -0.912916899      0.990838051     0.0
 -0.778603971       1.05835116     0.0
 -0.634924471       1.11423063     0.0
 -0.483401537       1.15792727     0.0
 -0.325770438       1.18902469     0.0
 -0.163951248       1.20723605     0.0
  -1.52110897E-06   1.21240163     0.0
  0.163948238       1.20448756     0.0
  0.325767338       1.18358696     0.0
  0.483398497       1.14992189     0.0
  0.634921789       1.10384703     0.0
  0.778601170       1.04585028     0.0
  0.912914455      0.976549625     0.0
   1.03656030      0.896690547     0.0
   1.14845502      0.807135761     0.0
   1.24771833      0.708855987     0.0
   1.33365452      0.602918863     0.0
   1.40573502      0.490475982     0.0
   1.46358228      0.372750193     0.0
   1.50695896      0.251021743     0.0
   1.53575814      0.126615494     0.0
   1.54999995       3.04221794E-06 0.0
   1.53575814     -0.126615494     0.0
   1.50695896     -0.251021743     0.0
   1.46358228     -0.372750193     0.0
   1.40573502     -0.490475982     0.0
   1.33365452     -0.602918863     0.0
   1.24771833     -0.708855987     0.0
   1.14845502     -0.807135761     0.0
   1.03656030     -0.896690547     0.0
  0.912914455     -0.976549625     0.0
  0.778601170      -1.04585028     0.0
  0.634921789      -1.10384703     0.0
  0.483398497      -1.14992189     0.0
  0.325767338      -1.18358696     0.0
  0.163948238      -1.20448756     0.0
  -1.52110897E-06  -1.21240163     0.0
 -0.163951248      -1.20723605     0.0
 -0.325770438      -1.18902469     0.0
 -0.483401537      -1.15792727     0.0
 -0.634924471      -1.11423063     0.0
 -0.778603971      -1.05835116     0.0
 -0.912916899     -0.990838051     0.0
  -1.03656244     -0.912372887     0.0
  -1.14845717     -0.823765635     0.0
  -1.24772024     -0.725944519     0.0
  -1.33365607     -0.619941115     0.0
  -1.40573621     -0.506865501     0.0
  -1.46358323     -0.387869656     0.0
  -1.50695944     -0.264071167     0.0
  -1.53575861     -0.136302054     0.0
  -1.54999995       0.00000000     0.0
  -1.66666663       0.00000000     0.0
  -1.65206003      0.149721652     0.0
  -1.62151337      0.291098535     0.0
  -1.57504249      0.428259999     0.0
  -1.51280510      0.560202658     0.0
  -1.43510592      0.685658097     0.0
  -1.34240353      0.803334773     0.0
  -1.23532021      0.911992073     0.0
  -1.11465597       1.01047778     0.0
 -0.981403887       1.09775364     0.0
 -0.836765826       1.17291069     0.0
 -0.682163775       1.23518062     0.0
 -0.519243002       1.28394151     0.0
 -0.349859983       1.31871831     0.0
 -0.176054448       1.33918142     0.0
  -1.69012105E-06   1.34514439     0.0
  0.176051095       1.33656371     0.0
  0.349856555       1.31353951     0.0
  0.519239604       1.27631748     0.0
  0.682160735       1.22529173     0.0
  0.836762726       1.16100526     0.0
  0.981401205       1.08414602     0.0
   1.11465359      0.995542586     0.0
   1.23531783      0.896154463     0.0
   1.34240150      0.787060320     0.0
   1.43510413      0.669446886     0.0
   1.51280367      0.544594049     0.0
   1.57504129      0.413861006     0.0
   1.62151277      0.278670967     0.0
   1.65205956      0.140496835     0.0
   1.66666663       3.38024211E-06 0.0
   1.65205956     -0.140496835     0.0
   1.62151277     -0.278670967     0.0
   1.57504129     -0.413861006     0.0
   1.51280367     -0.544594049     0.0
   1.43510413     -0.669446886     0.0
   1.34240150     -0.787060320     0.0
   1.23531783     -0.896154463     0.0
   1.11465359     -0.995542586     0.0
  0.981401205      -1.08414602     0.0
  0.836762726      -1.16100526     0.0
  0.682160735      -1.22529173     0.0
  0.519239604      -1.27631748     0.0
  0.349856555      -1.31353951     0.0
  0.176051095      -1.33656371     0.0
  -1.69012105E-06  -1.34514439     0.0
 -0.176054448      -1.33918142     0.0
 -0.349859983      -1.31871831     0.0
 -0.519243002      -1.28394151     0.0
 -0.682163775      -1.23518062     0.0
 -0.836765826      -1.17291069     0.0
 -0.981403887      -1.09775364     0.0
  -1.11465597      -1.01047778     0.0
  -1.23532021     -0.911992073     0.0
  -1.34240353     -0.803334773     0.0
  -1.43510592     -0.685658097     0.0
  -1.51280510     -0.560202658     0.0
  -1.57504249     -0.428259999     0.0
  -1.62151337     -0.291098535     0.0
  -1.65206003     -0.149721652     0.0
  -1.66666663       0.00000000     0.0
  -1.78333330       0.00000000     0.0
  -1.76836133      0.163141251     0.0
  -1.73606718      0.318125933     0.0
  -1.68650162      0.468650341     0.0
  -1.61987388      0.613539815     0.0
  -1.53655577      0.751375139     0.0
  -1.43708682      0.880725026     0.0
  -1.32218325       1.00021851     0.0
  -1.19274938       1.10858274     0.0
  -1.04989088       1.20466924     0.0
 -0.894927680       1.28747010     0.0
 -0.729403079       1.35613060     0.0
 -0.555084407       1.40995562     0.0
 -0.373949558       1.44841194     0.0
 -0.188157648       1.47112668     0.0
  -1.85913325E-06   1.47788727     0.0
  0.188153952       1.46863997     0.0
  0.373945773       1.44349205     0.0
  0.555080712       1.40271306     0.0
  0.729399741       1.34673631     0.0
  0.894924283       1.27616024     0.0
   1.04988790       1.19174230     0.0
   1.19274664       1.09439468     0.0
   1.32218063      0.985173166     0.0
   1.43708456      0.865264714     0.0
   1.53655374      0.735974967     0.0
   1.61987245      0.598712087     0.0
   1.68650043      0.454971820     0.0
   1.73606658      0.306320220     0.0
   1.76836085      0.154378161     0.0
   1.78333330       3.71826650E-06 0.0
   1.76836085     -0.154378161     0.0
   1.73606658     -0.306320220     0.0
   1.68650043     -0.454971820     0.0
   1.61987245     -0.598712087     0.0
   1.53655374     -0.735974967     0.0
   1.43708456     -0.865264714     0.0
   1.32218063     -0.985173166     0.0
   1.19274664      -1.09439468     0.0
   1.04988790      -1.19174230     0.0
  0.894924283      -1.27616024     0.0
  0.729399741      -1.34673631     0.0
  0.555080712      -1.40271306     0.0
  0.373945773      -1.44349205     0.0
  0.188153952      -1.46863997     0.0
  -1.85913325E-06  -1.47788727     0.0
 -0.188157648      -1.47112668     0.0
 -0.373949558      -1.44841194     0.0
 -0.555084407      -1.40995562     0.0
 -0.729403079      -1.35613060     0.0
 -0.894927680      -1.28747010     0.0
  -1.04989088      -1.20466924     0.0
  -1.19274938      -1.10858274     0.0
  -1.32218325      -1.00021851     0.0
  -1.43708682     -0.880725026     0.0
  -1.53655577     -0.751375139     0.0
  -1.61987388     -0.613539815     0.0
  -1.68650162     -0.468650341     0.0
  -1.73606718     -0.318125933     0.0
  -1.76836133     -0.163141251     0.0
  -1.78333330       0.00000000     0.0
  -1.89999998       0.00000000     0.0
  -1.88466275      0.176560834     0.0
  -1.85062099      0.345153302     0.0
  -1.79796088      0.509040713     0.0
  -1.72694278      0.666876972     0.0
  -1.63800561      0.817092180     0.0
  -1.53177011      0.958115220     0.0
  -1.40904617       1.08844495     0.0
  -1.27084279       1.20668781     0.0
  -1.11837780       1.31158483     0.0
 -0.953089595       1.40202951     0.0
 -0.776642382       1.47708058     0.0
 -0.590925872       1.53596973     0.0
 -0.398039132       1.57810545     0.0
 -0.200260848       1.60307193     0.0
  -2.02814545E-06   1.61063004     0.0